h 0.7242 3 10 tcp 40 ------- 2 3.1 5.1 0 0
+ 0.7243 3 10 tcp 40 ------- 2 3.1 5.1 0 0
- 0.7243 3 10 tcp 40 ------- 2 3.1 5.1 0 0
r 0.729524 10 5 tcp 40 ------- 2 3.1 5.1 0 0
h 0.729524 5 10 ack 40 ------- 2 5.1 3.1 0 1
+ 0.729624 5 10 ack 40 ------- 2 5.1 3.1 0 1
- 0.729624 5 10 ack 40 ------- 2 5.1 3.1 0 1
r 0.735608 10 3 ack 40 ------- 2 5.1 3.1 0 1
h 0.735608 3 10 tcp 1040 ------- 2 3.1 5.1 1 2
+ 0.735708 3 10 tcp 1040 ------- 2 3.1 5.1 1 2
- 0.735708 3 10 tcp 1040 ------- 2 3.1 5.1 1 2
r 0.820892 10 5 tcp 1040 ------- 2 3.1 5.1 1 2
h 0.820892 5 10 ack 40 ------- 2 5.1 3.1 1 3
+ 0.820992 5 10 ack 40 ------- 2 5.1 3.1 1 3
- 0.820992 5 10 ack 40 ------- 2 5.1 3.1 1 3
r 0.826976 10 3 ack 40 ------- 2 5.1 3.1 1 3
h 1.318317 3 10 tcp 40 ------- 1 3.0 5.0 0 4
+ 1.318417 3 10 tcp 40 ------- 1 3.0 5.0 0 4
- 1.318417 3 10 tcp 40 ------- 1 3.0 5.0 0 4
r 1.323641 10 5 tcp 40 ------- 1 3.0 5.0 0 4
h 1.323641 5 10 ack 40 ------- 1 5.0 3.0 0 5
+ 1.323741 5 10 ack 40 ------- 1 5.0 3.0 0 5
- 1.323741 5 10 ack 40 ------- 1 5.0 3.0 0 5
r 1.329725 10 3 ack 40 ------- 1 5.0 3.0 0 5
h 1.329725 3 10 tcp 1040 ------- 1 3.0 5.0 1 6
+ 1.329825 3 10 tcp 1040 ------- 1 3.0 5.0 1 6
- 1.329825 3 10 tcp 1040 ------- 1 3.0 5.0 1 6
r 1.415009 10 5 tcp 1040 ------- 1 3.0 5.0 1 6
h 1.415009 5 10 ack 40 ------- 1 5.0 3.0 1 7
+ 1.415109 5 10 ack 40 ------- 1 5.0 3.0 1 7
- 1.415109 5 10 ack 40 ------- 1 5.0 3.0 1 7
r 1.421093 10 3 ack 40 ------- 1 5.0 3.0 1 7
h 1.521075 3 10 tcp 1040 ------- 1 3.0 5.0 2 8
+ 1.521175 3 10 tcp 1040 ------- 1 3.0 5.0 2 8
- 1.521175 3 10 tcp 1040 ------- 1 3.0 5.0 2 8
r 1.605599 10 5 tcp 1040 ------- 1 3.0 5.0 2 8
h 1.605599 5 10 ack 40 ------- 1 5.0 3.0 2 9
+ 1.605699 5 10 ack 40 ------- 1 5.0 3.0 2 9
- 1.605699 5 10 ack 40 ------- 1 5.0 3.0 2 9
r 1.611683 10 3 ack 40 ------- 1 5.0 3.0 2 9
h 1.885874 3 10 tcp 1040 ---A--- 2 3.1 5.1 2 10
+ 1.885974 3 10 tcp 1040 ---A--- 2 3.1 5.1 2 10
- 1.885974 3 10 tcp 1040 ---A--- 2 3.1 5.1 2 10
r 1.970398 10 5 tcp 1040 ---A--- 2 3.1 5.1 2 10
h 1.970398 5 10 ack 40 ------- 2 5.1 3.1 2 11
+ 1.970498 5 10 ack 40 ------- 2 5.1 3.1 2 11
- 1.970498 5 10 ack 40 ------- 2 5.1 3.1 2 11
r 1.976482 10 3 ack 40 ------- 2 5.1 3.1 2 11
