h 0.5 0 12 cbr 210 ------- 0 0.0 3.0 0 0
h 0.5 4 12 tcp 40 ------- 1 4.0 8.0 0 1
h 0.50375 0 12 cbr 210 ------- 0 0.0 3.0 1 2
h 0.5075 0 12 cbr 210 ------- 0 0.0 3.0 2 3
+ 0.51 0 12 cbr 210 ------- 0 0.0 3.0 0 0
- 0.51 0 12 cbr 210 ------- 0 0.0 3.0 0 0
+ 0.51 4 12 tcp 40 ------- 1 4.0 8.0 0 1
- 0.51 4 12 tcp 40 ------- 1 4.0 8.0 0 1
h 0.51125 0 12 cbr 210 ------- 0 0.0 3.0 3 4
+ 0.51375 0 12 cbr 210 ------- 0 0.0 3.0 1 2
h 0.515 0 12 cbr 210 ------- 0 0.0 3.0 4 5
+ 0.5175 0 12 cbr 210 ------- 0 0.0 3.0 2 3
h 0.51875 0 12 cbr 210 ------- 0 0.0 3.0 5 6
+ 0.52125 0 12 cbr 210 ------- 0 0.0 3.0 3 4
h 0.5225 0 12 cbr 210 ------- 0 0.0 3.0 6 7
+ 0.525 0 12 cbr 210 ------- 0 0.0 3.0 4 5
h 0.52625 0 12 cbr 210 ------- 0 0.0 3.0 7 8
r 0.526408 12 8 tcp 40 ------- 1 4.0 8.0 0 1
h 0.526408 8 12 ack 40 ------- 1 8.0 4.0 0 9
+ 0.52875 0 12 cbr 210 ------- 0 0.0 3.0 5 6
h 0.53 0 12 cbr 210 ------- 0 0.0 3.0 8 10
+ 0.5325 0 12 cbr 210 ------- 0 0.0 3.0 6 7
h 0.53375 0 12 cbr 210 ------- 0 0.0 3.0 9 11
- 0.536248 0 12 cbr 210 ------- 0 0.0 3.0 1 2
+ 0.53625 0 12 cbr 210 ------- 0 0.0 3.0 7 8
+ 0.536408 8 12 ack 40 ------- 1 8.0 4.0 0 9
- 0.536408 8 12 ack 40 ------- 1 8.0 4.0 0 9
h 0.5375 0 12 cbr 210 ------- 0 0.0 3.0 10 12
+ 0.54 0 12 cbr 210 ------- 0 0.0 3.0 8 10
h 0.54125 0 12 cbr 210 ------- 0 0.0 3.0 11 13
+ 0.54375 0 12 cbr 210 ------- 0 0.0 3.0 9 11
h 0.545 0 12 cbr 210 ------- 0 0.0 3.0 12 14
r 0.545292 12 3 cbr 210 ------- 0 0.0 3.0 0 0
+ 0.5475 0 12 cbr 210 ------- 0 0.0 3.0 10 12
h 0.54875 0 12 cbr 210 ------- 0 0.0 3.0 13 15
+ 0.55125 0 12 cbr 210 ------- 0 0.0 3.0 11 13
h 0.5525 0 12 cbr 210 ------- 0 0.0 3.0 14 16
+ 0.555 0 12 cbr 210 ------- 0 0.0 3.0 12 14
- 0.555128 0 12 cbr 210 ------- 0 0.0 3.0 2 3
h 0.55625 0 12 cbr 210 ------- 0 0.0 3.0 15 17
+ 0.55875 0 12 cbr 210 ------- 0 0.0 3.0 13 15
h 0.56 0 12 cbr 210 ------- 0 0.0 3.0 16 18
+ 0.5625 0 12 cbr 210 ------- 0 0.0 3.0 14 16
h 0.56375 0 12 cbr 210 ------- 0 0.0 3.0 17 19
r 0.564172 12 3 cbr 210 ------- 0 0.0 3.0 1 2
+ 0.56625 0 12 cbr 210 ------- 0 0.0 3.0 15 17
h 0.5675 0 12 cbr 210 ------- 0 0.0 3.0 18 20
+ 0.57 0 12 cbr 210 ------- 0 0.0 3.0 16 18
h 0.57125 0 12 cbr 210 ------- 0 0.0 3.0 19 21
+ 0.57375 0 12 cbr 210 ------- 0 0.0 3.0 17 19
h 0.575 0 12 cbr 210 ------- 0 0.0 3.0 20 22
+ 0.5775 0 12 cbr 210 ------- 0 0.0 3.0 18 20
h 0.57875 0 12 cbr 210 ------- 0 0.0 3.0 21 23
+ 0.58125 0 12 cbr 210 ------- 0 0.0 3.0 19 21
- 0.581696 0 12 cbr 210 ------- 0 0.0 3.0 3 4
h 0.5825 0 12 cbr 210 ------- 0 0.0 3.0 22 24
+ 0.585 0 12 cbr 210 ------- 0 0.0 3.0 20 22
h 0.58625 0 12 cbr 210 ------- 0 0.0 3.0 23 25
+ 0.58875 0 12 cbr 210 ------- 0 0.0 3.0 21 23
h 0.59 0 12 cbr 210 ------- 0 0.0 3.0 24 26
r 0.59074 12 3 cbr 210 ------- 0 0.0 3.0 2 3
+ 0.5925 0 12 cbr 210 ------- 0 0.0 3.0 22 24
h 0.59375 0 12 cbr 210 ------- 0 0.0 3.0 25 27
+ 0.59625 0 12 cbr 210 ------- 0 0.0 3.0 23 25
h 0.5975 0 12 cbr 210 ------- 0 0.0 3.0 26 28
+ 0.6 0 12 cbr 210 ------- 0 0.0 3.0 24 26
h 0.60125 0 12 cbr 210 ------- 0 0.0 3.0 27 29
- 0.601864 0 12 cbr 210 ------- 0 0.0 3.0 4 5
+ 0.60375 0 12 cbr 210 ------- 0 0.0 3.0 25 27
h 0.605 0 12 cbr 210 ------- 0 0.0 3.0 28 30
+ 0.6075 0 12 cbr 210 ------- 0 0.0 3.0 26 28
h 0.60875 0 12 cbr 210 ------- 0 0.0 3.0 29 31
r 0.610908 12 3 cbr 210 ------- 0 0.0 3.0 3 4
+ 0.61125 0 12 cbr 210 ------- 0 0.0 3.0 27 29
h 0.6125 0 12 cbr 210 ------- 0 0.0 3.0 30 32
+ 0.615 0 12 cbr 210 ------- 0 0.0 3.0 28 30
h 0.61625 0 12 cbr 210 ------- 0 0.0 3.0 31 33
+ 0.61875 0 12 cbr 210 ------- 0 0.0 3.0 29 31
h 0.62 0 12 cbr 210 ------- 0 0.0 3.0 32 34
- 0.620744 0 12 cbr 210 ------- 0 0.0 3.0 5 6
+ 0.6225 0 12 cbr 210 ------- 0 0.0 3.0 30 32
h 0.62375 0 12 cbr 210 ------- 0 0.0 3.0 33 35
+ 0.62625 0 12 cbr 210 ------- 0 0.0 3.0 31 33
h 0.6275 0 12 cbr 210 ------- 0 0.0 3.0 34 36
r 0.629788 12 3 cbr 210 ------- 0 0.0 3.0 4 5
+ 0.63 0 12 cbr 210 ------- 0 0.0 3.0 32 34
h 0.63125 0 12 cbr 210 ------- 0 0.0 3.0 35 37
+ 0.63375 0 12 cbr 210 ------- 0 0.0 3.0 33 35
h 0.635 0 12 cbr 210 ------- 0 0.0 3.0 36 38
+ 0.6375 0 12 cbr 210 ------- 0 0.0 3.0 34 36
h 0.63875 0 12 cbr 210 ------- 0 0.0 3.0 37 39
+ 0.64125 0 12 cbr 210 ------- 0 0.0 3.0 35 37
h 0.6425 0 12 cbr 210 ------- 0 0.0 3.0 38 40
+ 0.645 0 12 cbr 210 ------- 0 0.0 3.0 36 38
- 0.646032 0 12 cbr 210 ------- 0 0.0 3.0 6 7
h 0.64625 0 12 cbr 210 ------- 0 0.0 3.0 39 41
+ 0.64875 0 12 cbr 210 ------- 0 0.0 3.0 37 39
h 0.65 0 12 cbr 210 ------- 0 0.0 3.0 40 42
+ 0.6525 0 12 cbr 210 ------- 0 0.0 3.0 38 40
h 0.65375 0 12 cbr 210 ------- 0 0.0 3.0 41 43
r 0.655076 12 3 cbr 210 ------- 0 0.0 3.0 5 6
+ 0.65625 0 12 cbr 210 ------- 0 0.0 3.0 39 41
h 0.6575 0 12 cbr 210 ------- 0 0.0 3.0 42 44
+ 0.66 0 12 cbr 210 ------- 0 0.0 3.0 40 42
h 0.66125 0 12 cbr 210 ------- 0 0.0 3.0 43 45
+ 0.66375 0 12 cbr 210 ------- 0 0.0 3.0 41 43
h 0.665 0 12 cbr 210 ------- 0 0.0 3.0 44 46
+ 0.6675 0 12 cbr 210 ------- 0 0.0 3.0 42 44
h 0.66875 0 12 cbr 210 ------- 0 0.0 3.0 45 47
+ 0.67125 0 12 cbr 210 ------- 0 0.0 3.0 43 45
- 0.67132 0 12 cbr 210 ------- 0 0.0 3.0 7 8
h 0.6725 0 12 cbr 210 ------- 0 0.0 3.0 46 48
+ 0.675 0 12 cbr 210 ------- 0 0.0 3.0 44 46
h 0.67625 0 12 cbr 210 ------- 0 0.0 3.0 47 49
+ 0.67875 0 12 cbr 210 ------- 0 0.0 3.0 45 47
h 0.68 0 12 cbr 210 ------- 0 0.0 3.0 48 50
r 0.680364 12 3 cbr 210 ------- 0 0.0 3.0 6 7
+ 0.6825 0 12 cbr 210 ------- 0 0.0 3.0 46 48
h 0.68375 0 12 cbr 210 ------- 0 0.0 3.0 49 51
+ 0.68625 0 12 cbr 210 ------- 0 0.0 3.0 47 49
h 0.6875 0 12 cbr 210 ------- 0 0.0 3.0 50 52
+ 0.69 0 12 cbr 210 ------- 0 0.0 3.0 48 50
- 0.6902 0 12 cbr 210 ------- 0 0.0 3.0 8 10
h 0.69125 0 12 cbr 210 ------- 0 0.0 3.0 51 53
+ 0.69375 0 12 cbr 210 ------- 0 0.0 3.0 49 51
h 0.695 0 12 cbr 210 ------- 0 0.0 3.0 52 54
+ 0.6975 0 12 cbr 210 ------- 0 0.0 3.0 50 52
h 0.69875 0 12 cbr 210 ------- 0 0.0 3.0 53 55
r 0.699244 12 3 cbr 210 ------- 0 0.0 3.0 7 8
+ 0.70125 0 12 cbr 210 ------- 0 0.0 3.0 51 53
h 0.7025 0 12 cbr 210 ------- 0 0.0 3.0 54 56
+ 0.705 0 12 cbr 210 ------- 0 0.0 3.0 52 54
h 0.70625 0 12 cbr 210 ------- 0 0.0 3.0 55 57
+ 0.70875 0 12 cbr 210 ------- 0 0.0 3.0 53 55
h 0.71 0 12 cbr 210 ------- 0 0.0 3.0 56 58
- 0.710368 0 12 cbr 210 ------- 0 0.0 3.0 9 11
+ 0.7125 0 12 cbr 210 ------- 0 0.0 3.0 54 56
h 0.71375 0 12 cbr 210 ------- 0 0.0 3.0 57 59
+ 0.71625 0 12 cbr 210 ------- 0 0.0 3.0 55 57
h 0.7175 0 12 cbr 210 ------- 0 0.0 3.0 58 60
r 0.719412 12 3 cbr 210 ------- 0 0.0 3.0 8 10
+ 0.72 0 12 cbr 210 ------- 0 0.0 3.0 56 58
h 0.72125 0 12 cbr 210 ------- 0 0.0 3.0 59 61
+ 0.72375 0 12 cbr 210 ------- 0 0.0 3.0 57 59
h 0.725 0 12 cbr 210 ------- 0 0.0 3.0 60 62
+ 0.7275 0 12 cbr 210 ------- 0 0.0 3.0 58 60
h 0.72875 0 12 cbr 210 ------- 0 0.0 3.0 61 63
- 0.729248 0 12 cbr 210 ------- 0 0.0 3.0 10 12
+ 0.73125 0 12 cbr 210 ------- 0 0.0 3.0 59 61
h 0.7325 0 12 cbr 210 ------- 0 0.0 3.0 62 64
+ 0.735 0 12 cbr 210 ------- 0 0.0 3.0 60 62
d 0.735 0 12 cbr 210 ------- 0 0.0 3.0 60 62
h 0.73625 0 12 cbr 210 ------- 0 0.0 3.0 63 65
r 0.738292 12 3 cbr 210 ------- 0 0.0 3.0 9 11
+ 0.73875 0 12 cbr 210 ------- 0 0.0 3.0 61 63
d 0.73875 0 12 cbr 210 ------- 0 0.0 3.0 61 63
h 0.74 0 12 cbr 210 ------- 0 0.0 3.0 64 66
+ 0.7425 0 12 cbr 210 ------- 0 0.0 3.0 62 64
d 0.7425 0 12 cbr 210 ------- 0 0.0 3.0 62 64
h 0.74375 0 12 cbr 210 ------- 0 0.0 3.0 65 67
+ 0.74625 0 12 cbr 210 ------- 0 0.0 3.0 63 65
d 0.74625 0 12 cbr 210 ------- 0 0.0 3.0 63 65
h 0.7475 0 12 cbr 210 ------- 0 0.0 3.0 66 68
- 0.748128 0 12 cbr 210 ------- 0 0.0 3.0 11 13
+ 0.75 0 12 cbr 210 ------- 0 0.0 3.0 64 66
h 0.75125 0 12 cbr 210 ------- 0 0.0 3.0 67 69
+ 0.75375 0 12 cbr 210 ------- 0 0.0 3.0 65 67
d 0.75375 0 12 cbr 210 ------- 0 0.0 3.0 65 67
h 0.755 0 12 cbr 210 ------- 0 0.0 3.0 68 70
r 0.757172 12 3 cbr 210 ------- 0 0.0 3.0 10 12
+ 0.7575 0 12 cbr 210 ------- 0 0.0 3.0 66 68
d 0.7575 0 12 cbr 210 ------- 0 0.0 3.0 66 68
h 0.75875 0 12 cbr 210 ------- 0 0.0 3.0 69 71
+ 0.76125 0 12 cbr 210 ------- 0 0.0 3.0 67 69
d 0.76125 0 12 cbr 210 ------- 0 0.0 3.0 67 69
h 0.7625 0 12 cbr 210 ------- 0 0.0 3.0 70 72
+ 0.765 0 12 cbr 210 ------- 0 0.0 3.0 68 70
d 0.765 0 12 cbr 210 ------- 0 0.0 3.0 68 70
h 0.76625 0 12 cbr 210 ------- 0 0.0 3.0 71 73
- 0.768296 0 12 cbr 210 ------- 0 0.0 3.0 12 14
+ 0.76875 0 12 cbr 210 ------- 0 0.0 3.0 69 71
h 0.77 0 12 cbr 210 ------- 0 0.0 3.0 72 74
+ 0.7725 0 12 cbr 210 ------- 0 0.0 3.0 70 72
d 0.7725 0 12 cbr 210 ------- 0 0.0 3.0 70 72
h 0.77375 0 12 cbr 210 ------- 0 0.0 3.0 73 75
+ 0.77625 0 12 cbr 210 ------- 0 0.0 3.0 71 73
d 0.77625 0 12 cbr 210 ------- 0 0.0 3.0 71 73
r 0.77734 12 3 cbr 210 ------- 0 0.0 3.0 11 13
h 0.7775 0 12 cbr 210 ------- 0 0.0 3.0 74 76
+ 0.78 0 12 cbr 210 ------- 0 0.0 3.0 72 74
d 0.78 0 12 cbr 210 ------- 0 0.0 3.0 72 74
h 0.78125 0 12 cbr 210 ------- 0 0.0 3.0 75 77
+ 0.78375 0 12 cbr 210 ------- 0 0.0 3.0 73 75
d 0.78375 0 12 cbr 210 ------- 0 0.0 3.0 73 75
h 0.785 0 12 cbr 210 ------- 0 0.0 3.0 76 78
- 0.787176 0 12 cbr 210 ------- 0 0.0 3.0 13 15
+ 0.7875 0 12 cbr 210 ------- 0 0.0 3.0 74 76
h 0.78875 0 12 cbr 210 ------- 0 0.0 3.0 77 79
+ 0.79125 0 12 cbr 210 ------- 0 0.0 3.0 75 77
d 0.79125 0 12 cbr 210 ------- 0 0.0 3.0 75 77
h 0.7925 0 12 cbr 210 ------- 0 0.0 3.0 78 80
+ 0.795 0 12 cbr 210 ------- 0 0.0 3.0 76 78
d 0.795 0 12 cbr 210 ------- 0 0.0 3.0 76 78
r 0.79622 12 3 cbr 210 ------- 0 0.0 3.0 12 14
h 0.79625 0 12 cbr 210 ------- 0 0.0 3.0 79 81
+ 0.79875 0 12 cbr 210 ------- 0 0.0 3.0 77 79
d 0.79875 0 12 cbr 210 ------- 0 0.0 3.0 77 79
h 0.8 0 12 cbr 210 ------- 0 0.0 3.0 80 82
+ 0.8025 0 12 cbr 210 ------- 0 0.0 3.0 78 80
d 0.8025 0 12 cbr 210 ------- 0 0.0 3.0 78 80
h 0.80375 0 12 cbr 210 ------- 0 0.0 3.0 81 83
- 0.806056 0 12 cbr 210 ------- 0 0.0 3.0 14 16
+ 0.80625 0 12 cbr 210 ------- 0 0.0 3.0 79 81
h 0.8075 0 12 cbr 210 ------- 0 0.0 3.0 82 84
+ 0.81 0 12 cbr 210 ------- 0 0.0 3.0 80 82
d 0.81 0 12 cbr 210 ------- 0 0.0 3.0 80 82
h 0.81125 0 12 cbr 210 ------- 0 0.0 3.0 83 85
+ 0.81375 0 12 cbr 210 ------- 0 0.0 3.0 81 83
d 0.81375 0 12 cbr 210 ------- 0 0.0 3.0 81 83
h 0.815 0 12 cbr 210 ------- 0 0.0 3.0 84 86
r 0.8151 12 3 cbr 210 ------- 0 0.0 3.0 13 15
+ 0.8175 0 12 cbr 210 ------- 0 0.0 3.0 82 84
d 0.8175 0 12 cbr 210 ------- 0 0.0 3.0 82 84
h 0.81875 0 12 cbr 210 ------- 0 0.0 3.0 85 87
+ 0.82125 0 12 cbr 210 ------- 0 0.0 3.0 83 85
d 0.82125 0 12 cbr 210 ------- 0 0.0 3.0 83 85
h 0.8225 0 12 cbr 210 ------- 0 0.0 3.0 86 88
- 0.824936 0 12 cbr 210 ------- 0 0.0 3.0 15 17
+ 0.825 0 12 cbr 210 ------- 0 0.0 3.0 84 86
h 0.82625 0 12 cbr 210 ------- 0 0.0 3.0 87 89
+ 0.82875 0 12 cbr 210 ------- 0 0.0 3.0 85 87
d 0.82875 0 12 cbr 210 ------- 0 0.0 3.0 85 87
h 0.83 0 12 cbr 210 ------- 0 0.0 3.0 88 90
+ 0.8325 0 12 cbr 210 ------- 0 0.0 3.0 86 88
d 0.8325 0 12 cbr 210 ------- 0 0.0 3.0 86 88
h 0.83375 0 12 cbr 210 ------- 0 0.0 3.0 89 91
r 0.83398 12 3 cbr 210 ------- 0 0.0 3.0 14 16
+ 0.83625 0 12 cbr 210 ------- 0 0.0 3.0 87 89
d 0.83625 0 12 cbr 210 ------- 0 0.0 3.0 87 89
h 0.8375 0 12 cbr 210 ------- 0 0.0 3.0 90 92
+ 0.84 0 12 cbr 210 ------- 0 0.0 3.0 88 90
d 0.84 0 12 cbr 210 ------- 0 0.0 3.0 88 90
h 0.84125 0 12 cbr 210 ------- 0 0.0 3.0 91 93
+ 0.84375 0 12 cbr 210 ------- 0 0.0 3.0 89 91
d 0.84375 0 12 cbr 210 ------- 0 0.0 3.0 89 91
- 0.843816 0 12 cbr 210 ------- 0 0.0 3.0 16 18
h 0.845 0 12 cbr 210 ------- 0 0.0 3.0 92 94
+ 0.8475 0 12 cbr 210 ------- 0 0.0 3.0 90 92
h 0.84875 0 12 cbr 210 ------- 0 0.0 3.0 93 95
+ 0.85125 0 12 cbr 210 ------- 0 0.0 3.0 91 93
d 0.85125 0 12 cbr 210 ------- 0 0.0 3.0 91 93
h 0.8525 0 12 cbr 210 ------- 0 0.0 3.0 94 96
r 0.85286 12 3 cbr 210 ------- 0 0.0 3.0 15 17
+ 0.855 0 12 cbr 210 ------- 0 0.0 3.0 92 94
d 0.855 0 12 cbr 210 ------- 0 0.0 3.0 92 94
h 0.85625 0 12 cbr 210 ------- 0 0.0 3.0 95 97
+ 0.85875 0 12 cbr 210 ------- 0 0.0 3.0 93 95
d 0.85875 0 12 cbr 210 ------- 0 0.0 3.0 93 95
h 0.86 0 12 cbr 210 ------- 0 0.0 3.0 96 98
+ 0.8625 0 12 cbr 210 ------- 0 0.0 3.0 94 96
d 0.8625 0 12 cbr 210 ------- 0 0.0 3.0 94 96
- 0.862696 0 12 cbr 210 ------- 0 0.0 3.0 17 19
h 0.86375 0 12 cbr 210 ------- 0 0.0 3.0 97 99
+ 0.86625 0 12 cbr 210 ------- 0 0.0 3.0 95 97
h 0.8675 0 12 cbr 210 ------- 0 0.0 3.0 98 100
+ 0.87 0 12 cbr 210 ------- 0 0.0 3.0 96 98
d 0.87 0 12 cbr 210 ------- 0 0.0 3.0 96 98
h 0.87125 0 12 cbr 210 ------- 0 0.0 3.0 99 101
r 0.87174 12 3 cbr 210 ------- 0 0.0 3.0 16 18
+ 0.87375 0 12 cbr 210 ------- 0 0.0 3.0 97 99
d 0.87375 0 12 cbr 210 ------- 0 0.0 3.0 97 99
h 0.875 0 12 cbr 210 ------- 0 0.0 3.0 100 102
+ 0.8775 0 12 cbr 210 ------- 0 0.0 3.0 98 100
d 0.8775 0 12 cbr 210 ------- 0 0.0 3.0 98 100
h 0.87875 0 12 cbr 210 ------- 0 0.0 3.0 101 103
+ 0.88125 0 12 cbr 210 ------- 0 0.0 3.0 99 101
d 0.88125 0 12 cbr 210 ------- 0 0.0 3.0 99 101
- 0.881576 0 12 cbr 210 ------- 0 0.0 3.0 18 20
h 0.8825 0 12 cbr 210 ------- 0 0.0 3.0 102 104
+ 0.885 0 12 cbr 210 ------- 0 0.0 3.0 100 102
h 0.88625 0 12 cbr 210 ------- 0 0.0 3.0 103 105
+ 0.88875 0 12 cbr 210 ------- 0 0.0 3.0 101 103
d 0.88875 0 12 cbr 210 ------- 0 0.0 3.0 101 103
h 0.89 0 12 cbr 210 ------- 0 0.0 3.0 104 106
r 0.89062 12 3 cbr 210 ------- 0 0.0 3.0 17 19
+ 0.8925 0 12 cbr 210 ------- 0 0.0 3.0 102 104
d 0.8925 0 12 cbr 210 ------- 0 0.0 3.0 102 104
h 0.89375 0 12 cbr 210 ------- 0 0.0 3.0 105 107
+ 0.89625 0 12 cbr 210 ------- 0 0.0 3.0 103 105
d 0.89625 0 12 cbr 210 ------- 0 0.0 3.0 103 105
h 0.8975 0 12 cbr 210 ------- 0 0.0 3.0 106 108
+ 0.9 0 12 cbr 210 ------- 0 0.0 3.0 104 106
d 0.9 0 12 cbr 210 ------- 0 0.0 3.0 104 106
- 0.900456 0 12 cbr 210 ------- 0 0.0 3.0 19 21
h 0.90125 0 12 cbr 210 ------- 0 0.0 3.0 107 109
+ 0.90375 0 12 cbr 210 ------- 0 0.0 3.0 105 107
h 0.905 0 12 cbr 210 ------- 0 0.0 3.0 108 110
+ 0.9075 0 12 cbr 210 ------- 0 0.0 3.0 106 108
d 0.9075 0 12 cbr 210 ------- 0 0.0 3.0 106 108
h 0.90875 0 12 cbr 210 ------- 0 0.0 3.0 109 111
r 0.9095 12 3 cbr 210 ------- 0 0.0 3.0 18 20
+ 0.91125 0 12 cbr 210 ------- 0 0.0 3.0 107 109
d 0.91125 0 12 cbr 210 ------- 0 0.0 3.0 107 109
h 0.9125 0 12 cbr 210 ------- 0 0.0 3.0 110 112
+ 0.915 0 12 cbr 210 ------- 0 0.0 3.0 108 110
d 0.915 0 12 cbr 210 ------- 0 0.0 3.0 108 110
h 0.91625 0 12 cbr 210 ------- 0 0.0 3.0 111 113
+ 0.91875 0 12 cbr 210 ------- 0 0.0 3.0 109 111
d 0.91875 0 12 cbr 210 ------- 0 0.0 3.0 109 111
- 0.919336 0 12 cbr 210 ------- 0 0.0 3.0 20 22
h 0.92 0 12 cbr 210 ------- 0 0.0 3.0 112 114
+ 0.9225 0 12 cbr 210 ------- 0 0.0 3.0 110 112
h 0.92375 0 12 cbr 210 ------- 0 0.0 3.0 113 115
+ 0.92625 0 12 cbr 210 ------- 0 0.0 3.0 111 113
d 0.92625 0 12 cbr 210 ------- 0 0.0 3.0 111 113
h 0.9275 0 12 cbr 210 ------- 0 0.0 3.0 114 116
r 0.92838 12 3 cbr 210 ------- 0 0.0 3.0 19 21
+ 0.93 0 12 cbr 210 ------- 0 0.0 3.0 112 114
d 0.93 0 12 cbr 210 ------- 0 0.0 3.0 112 114
h 0.93125 0 12 cbr 210 ------- 0 0.0 3.0 115 117
+ 0.93375 0 12 cbr 210 ------- 0 0.0 3.0 113 115
d 0.93375 0 12 cbr 210 ------- 0 0.0 3.0 113 115
h 0.935 0 12 cbr 210 ------- 0 0.0 3.0 116 118
+ 0.9375 0 12 cbr 210 ------- 0 0.0 3.0 114 116
d 0.9375 0 12 cbr 210 ------- 0 0.0 3.0 114 116
- 0.938216 0 12 cbr 210 ------- 0 0.0 3.0 21 23
h 0.93875 0 12 cbr 210 ------- 0 0.0 3.0 117 119
+ 0.94125 0 12 cbr 210 ------- 0 0.0 3.0 115 117
h 0.9425 0 12 cbr 210 ------- 0 0.0 3.0 118 120
+ 0.945 0 12 cbr 210 ------- 0 0.0 3.0 116 118
d 0.945 0 12 cbr 210 ------- 0 0.0 3.0 116 118
h 0.94625 0 12 cbr 210 ------- 0 0.0 3.0 119 121
r 0.94726 12 3 cbr 210 ------- 0 0.0 3.0 20 22
+ 0.94875 0 12 cbr 210 ------- 0 0.0 3.0 117 119
d 0.94875 0 12 cbr 210 ------- 0 0.0 3.0 117 119
h 0.95 0 12 cbr 210 ------- 0 0.0 3.0 120 122
+ 0.9525 0 12 cbr 210 ------- 0 0.0 3.0 118 120
d 0.9525 0 12 cbr 210 ------- 0 0.0 3.0 118 120
h 0.95375 0 12 cbr 210 ------- 0 0.0 3.0 121 123
+ 0.95625 0 12 cbr 210 ------- 0 0.0 3.0 119 121
d 0.95625 0 12 cbr 210 ------- 0 0.0 3.0 119 121
- 0.957096 0 12 cbr 210 ------- 0 0.0 3.0 22 24
h 0.9575 0 12 cbr 210 ------- 0 0.0 3.0 122 124
+ 0.96 0 12 cbr 210 ------- 0 0.0 3.0 120 122
h 0.96125 0 12 cbr 210 ------- 0 0.0 3.0 123 125
+ 0.96375 0 12 cbr 210 ------- 0 0.0 3.0 121 123
d 0.96375 0 12 cbr 210 ------- 0 0.0 3.0 121 123
h 0.965 0 12 cbr 210 ------- 0 0.0 3.0 124 126
r 0.96614 12 3 cbr 210 ------- 0 0.0 3.0 21 23
+ 0.9675 0 12 cbr 210 ------- 0 0.0 3.0 122 124
d 0.9675 0 12 cbr 210 ------- 0 0.0 3.0 122 124
h 0.96875 0 12 cbr 210 ------- 0 0.0 3.0 125 127
+ 0.97125 0 12 cbr 210 ------- 0 0.0 3.0 123 125
d 0.97125 0 12 cbr 210 ------- 0 0.0 3.0 123 125
h 0.9725 0 12 cbr 210 ------- 0 0.0 3.0 126 128
+ 0.975 0 12 cbr 210 ------- 0 0.0 3.0 124 126
d 0.975 0 12 cbr 210 ------- 0 0.0 3.0 124 126
- 0.975976 0 12 cbr 210 ------- 0 0.0 3.0 23 25
h 0.97625 0 12 cbr 210 ------- 0 0.0 3.0 127 129
+ 0.97875 0 12 cbr 210 ------- 0 0.0 3.0 125 127
h 0.98 0 12 cbr 210 ------- 0 0.0 3.0 128 130
+ 0.9825 0 12 cbr 210 ------- 0 0.0 3.0 126 128
d 0.9825 0 12 cbr 210 ------- 0 0.0 3.0 126 128
h 0.98375 0 12 cbr 210 ------- 0 0.0 3.0 129 131
r 0.98502 12 3 cbr 210 ------- 0 0.0 3.0 22 24
+ 0.98625 0 12 cbr 210 ------- 0 0.0 3.0 127 129
d 0.98625 0 12 cbr 210 ------- 0 0.0 3.0 127 129
h 0.9875 0 12 cbr 210 ------- 0 0.0 3.0 130 132
+ 0.99 0 12 cbr 210 ------- 0 0.0 3.0 128 130
d 0.99 0 12 cbr 210 ------- 0 0.0 3.0 128 130
h 0.99125 0 12 cbr 210 ------- 0 0.0 3.0 131 133
+ 0.99375 0 12 cbr 210 ------- 0 0.0 3.0 129 131
d 0.99375 0 12 cbr 210 ------- 0 0.0 3.0 129 131
- 0.994856 0 12 cbr 210 ------- 0 0.0 3.0 24 26
h 0.995 0 12 cbr 210 ------- 0 0.0 3.0 132 134
+ 0.9975 0 12 cbr 210 ------- 0 0.0 3.0 130 132
h 0.99875 0 12 cbr 210 ------- 0 0.0 3.0 133 135
+ 1.00125 0 12 cbr 210 ------- 0 0.0 3.0 131 133
d 1.00125 0 12 cbr 210 ------- 0 0.0 3.0 131 133
h 1.0025 0 12 cbr 210 ------- 0 0.0 3.0 134 136
r 1.0039 12 3 cbr 210 ------- 0 0.0 3.0 23 25
+ 1.005 0 12 cbr 210 ------- 0 0.0 3.0 132 134
d 1.005 0 12 cbr 210 ------- 0 0.0 3.0 132 134
h 1.00625 0 12 cbr 210 ------- 0 0.0 3.0 135 137
+ 1.00875 0 12 cbr 210 ------- 0 0.0 3.0 133 135
d 1.00875 0 12 cbr 210 ------- 0 0.0 3.0 133 135
h 1.01 0 12 cbr 210 ------- 0 0.0 3.0 136 138
+ 1.0125 0 12 cbr 210 ------- 0 0.0 3.0 134 136
d 1.0125 0 12 cbr 210 ------- 0 0.0 3.0 134 136
- 1.013736 0 12 cbr 210 ------- 0 0.0 3.0 25 27
h 1.01375 0 12 cbr 210 ------- 0 0.0 3.0 137 139
+ 1.01625 0 12 cbr 210 ------- 0 0.0 3.0 135 137
h 1.0175 0 12 cbr 210 ------- 0 0.0 3.0 138 140
+ 1.02 0 12 cbr 210 ------- 0 0.0 3.0 136 138
d 1.02 0 12 cbr 210 ------- 0 0.0 3.0 136 138
h 1.02125 0 12 cbr 210 ------- 0 0.0 3.0 139 141
r 1.02278 12 3 cbr 210 ------- 0 0.0 3.0 24 26
+ 1.02375 0 12 cbr 210 ------- 0 0.0 3.0 137 139
d 1.02375 0 12 cbr 210 ------- 0 0.0 3.0 137 139
h 1.025 0 12 cbr 210 ------- 0 0.0 3.0 140 142
+ 1.0275 0 12 cbr 210 ------- 0 0.0 3.0 138 140
d 1.0275 0 12 cbr 210 ------- 0 0.0 3.0 138 140
h 1.02875 0 12 cbr 210 ------- 0 0.0 3.0 141 143
+ 1.03125 0 12 cbr 210 ------- 0 0.0 3.0 139 141
d 1.03125 0 12 cbr 210 ------- 0 0.0 3.0 139 141
h 1.0325 0 12 cbr 210 ------- 0 0.0 3.0 142 144
- 1.032616 0 12 cbr 210 ------- 0 0.0 3.0 26 28
+ 1.035 0 12 cbr 210 ------- 0 0.0 3.0 140 142
h 1.03625 0 12 cbr 210 ------- 0 0.0 3.0 143 145
+ 1.03875 0 12 cbr 210 ------- 0 0.0 3.0 141 143
d 1.03875 0 12 cbr 210 ------- 0 0.0 3.0 141 143
h 1.04 0 12 cbr 210 ------- 0 0.0 3.0 144 146
r 1.04166 12 3 cbr 210 ------- 0 0.0 3.0 25 27
+ 1.0425 0 12 cbr 210 ------- 0 0.0 3.0 142 144
d 1.0425 0 12 cbr 210 ------- 0 0.0 3.0 142 144
h 1.04375 0 12 cbr 210 ------- 0 0.0 3.0 145 147
+ 1.04625 0 12 cbr 210 ------- 0 0.0 3.0 143 145
d 1.04625 0 12 cbr 210 ------- 0 0.0 3.0 143 145
h 1.0475 0 12 cbr 210 ------- 0 0.0 3.0 146 148
+ 1.05 0 12 cbr 210 ------- 0 0.0 3.0 144 146
d 1.05 0 12 cbr 210 ------- 0 0.0 3.0 144 146
h 1.05125 0 12 cbr 210 ------- 0 0.0 3.0 147 149
- 1.051496 0 12 cbr 210 ------- 0 0.0 3.0 27 29
+ 1.05375 0 12 cbr 210 ------- 0 0.0 3.0 145 147
h 1.055 0 12 cbr 210 ------- 0 0.0 3.0 148 150
+ 1.0575 0 12 cbr 210 ------- 0 0.0 3.0 146 148
d 1.0575 0 12 cbr 210 ------- 0 0.0 3.0 146 148
h 1.05875 0 12 cbr 210 ------- 0 0.0 3.0 149 151
r 1.06054 12 3 cbr 210 ------- 0 0.0 3.0 26 28
+ 1.06125 0 12 cbr 210 ------- 0 0.0 3.0 147 149
d 1.06125 0 12 cbr 210 ------- 0 0.0 3.0 147 149
h 1.0625 0 12 cbr 210 ------- 0 0.0 3.0 150 152
+ 1.065 0 12 cbr 210 ------- 0 0.0 3.0 148 150
d 1.065 0 12 cbr 210 ------- 0 0.0 3.0 148 150
h 1.06625 0 12 cbr 210 ------- 0 0.0 3.0 151 153
+ 1.06875 0 12 cbr 210 ------- 0 0.0 3.0 149 151
d 1.06875 0 12 cbr 210 ------- 0 0.0 3.0 149 151
h 1.07 0 12 cbr 210 ------- 0 0.0 3.0 152 154
- 1.070376 0 12 cbr 210 ------- 0 0.0 3.0 28 30
+ 1.0725 0 12 cbr 210 ------- 0 0.0 3.0 150 152
h 1.07375 0 12 cbr 210 ------- 0 0.0 3.0 153 155
+ 1.07625 0 12 cbr 210 ------- 0 0.0 3.0 151 153
d 1.07625 0 12 cbr 210 ------- 0 0.0 3.0 151 153
h 1.0775 0 12 cbr 210 ------- 0 0.0 3.0 154 156
r 1.07942 12 3 cbr 210 ------- 0 0.0 3.0 27 29
+ 1.08 0 12 cbr 210 ------- 0 0.0 3.0 152 154
d 1.08 0 12 cbr 210 ------- 0 0.0 3.0 152 154
h 1.08125 0 12 cbr 210 ------- 0 0.0 3.0 155 157
+ 1.08375 0 12 cbr 210 ------- 0 0.0 3.0 153 155
d 1.08375 0 12 cbr 210 ------- 0 0.0 3.0 153 155
h 1.085 0 12 cbr 210 ------- 0 0.0 3.0 156 158
+ 1.0875 0 12 cbr 210 ------- 0 0.0 3.0 154 156
d 1.0875 0 12 cbr 210 ------- 0 0.0 3.0 154 156
h 1.08875 0 12 cbr 210 ------- 0 0.0 3.0 157 159
- 1.089256 0 12 cbr 210 ------- 0 0.0 3.0 29 31
+ 1.09125 0 12 cbr 210 ------- 0 0.0 3.0 155 157
h 1.0925 0 12 cbr 210 ------- 0 0.0 3.0 158 160
+ 1.095 0 12 cbr 210 ------- 0 0.0 3.0 156 158
d 1.095 0 12 cbr 210 ------- 0 0.0 3.0 156 158
h 1.09625 0 12 cbr 210 ------- 0 0.0 3.0 159 161
r 1.0983 12 3 cbr 210 ------- 0 0.0 3.0 28 30
+ 1.09875 0 12 cbr 210 ------- 0 0.0 3.0 157 159
d 1.09875 0 12 cbr 210 ------- 0 0.0 3.0 157 159
h 1.1 0 12 cbr 210 ------- 0 0.0 3.0 160 162
+ 1.1025 0 12 cbr 210 ------- 0 0.0 3.0 158 160
d 1.1025 0 12 cbr 210 ------- 0 0.0 3.0 158 160
h 1.10375 0 12 cbr 210 ------- 0 0.0 3.0 161 163
+ 1.10625 0 12 cbr 210 ------- 0 0.0 3.0 159 161
d 1.10625 0 12 cbr 210 ------- 0 0.0 3.0 159 161
h 1.1075 0 12 cbr 210 ------- 0 0.0 3.0 162 164
- 1.108136 0 12 cbr 210 ------- 0 0.0 3.0 30 32
+ 1.11 0 12 cbr 210 ------- 0 0.0 3.0 160 162
h 1.11125 0 12 cbr 210 ------- 0 0.0 3.0 163 165
+ 1.11375 0 12 cbr 210 ------- 0 0.0 3.0 161 163
d 1.11375 0 12 cbr 210 ------- 0 0.0 3.0 161 163
h 1.115 0 12 cbr 210 ------- 0 0.0 3.0 164 166
r 1.11718 12 3 cbr 210 ------- 0 0.0 3.0 29 31
+ 1.1175 0 12 cbr 210 ------- 0 0.0 3.0 162 164
d 1.1175 0 12 cbr 210 ------- 0 0.0 3.0 162 164
h 1.11875 0 12 cbr 210 ------- 0 0.0 3.0 165 167
+ 1.12125 0 12 cbr 210 ------- 0 0.0 3.0 163 165
d 1.12125 0 12 cbr 210 ------- 0 0.0 3.0 163 165
h 1.1225 0 12 cbr 210 ------- 0 0.0 3.0 166 168
+ 1.125 0 12 cbr 210 ------- 0 0.0 3.0 164 166
d 1.125 0 12 cbr 210 ------- 0 0.0 3.0 164 166
h 1.12625 0 12 cbr 210 ------- 0 0.0 3.0 167 169
- 1.127016 0 12 cbr 210 ------- 0 0.0 3.0 31 33
+ 1.12875 0 12 cbr 210 ------- 0 0.0 3.0 165 167
h 1.13 0 12 cbr 210 ------- 0 0.0 3.0 168 170
+ 1.1325 0 12 cbr 210 ------- 0 0.0 3.0 166 168
d 1.1325 0 12 cbr 210 ------- 0 0.0 3.0 166 168
h 1.13375 0 12 cbr 210 ------- 0 0.0 3.0 169 171
r 1.13606 12 3 cbr 210 ------- 0 0.0 3.0 30 32
+ 1.13625 0 12 cbr 210 ------- 0 0.0 3.0 167 169
d 1.13625 0 12 cbr 210 ------- 0 0.0 3.0 167 169
h 1.1375 0 12 cbr 210 ------- 0 0.0 3.0 170 172
+ 1.14 0 12 cbr 210 ------- 0 0.0 3.0 168 170
d 1.14 0 12 cbr 210 ------- 0 0.0 3.0 168 170
h 1.14125 0 12 cbr 210 ------- 0 0.0 3.0 171 173
+ 1.14375 0 12 cbr 210 ------- 0 0.0 3.0 169 171
d 1.14375 0 12 cbr 210 ------- 0 0.0 3.0 169 171
h 1.145 0 12 cbr 210 ------- 0 0.0 3.0 172 174
- 1.145896 0 12 cbr 210 ------- 0 0.0 3.0 32 34
+ 1.1475 0 12 cbr 210 ------- 0 0.0 3.0 170 172
h 1.14875 0 12 cbr 210 ------- 0 0.0 3.0 173 175
+ 1.15125 0 12 cbr 210 ------- 0 0.0 3.0 171 173
d 1.15125 0 12 cbr 210 ------- 0 0.0 3.0 171 173
h 1.1525 0 12 cbr 210 ------- 0 0.0 3.0 174 176
r 1.15494 12 3 cbr 210 ------- 0 0.0 3.0 31 33
+ 1.155 0 12 cbr 210 ------- 0 0.0 3.0 172 174
d 1.155 0 12 cbr 210 ------- 0 0.0 3.0 172 174
h 1.15625 0 12 cbr 210 ------- 0 0.0 3.0 175 177
+ 1.15875 0 12 cbr 210 ------- 0 0.0 3.0 173 175
d 1.15875 0 12 cbr 210 ------- 0 0.0 3.0 173 175
h 1.16 0 12 cbr 210 ------- 0 0.0 3.0 176 178
+ 1.1625 0 12 cbr 210 ------- 0 0.0 3.0 174 176
d 1.1625 0 12 cbr 210 ------- 0 0.0 3.0 174 176
h 1.16375 0 12 cbr 210 ------- 0 0.0 3.0 177 179
- 1.164776 0 12 cbr 210 ------- 0 0.0 3.0 33 35
+ 1.16625 0 12 cbr 210 ------- 0 0.0 3.0 175 177
h 1.1675 0 12 cbr 210 ------- 0 0.0 3.0 178 180
+ 1.17 0 12 cbr 210 ------- 0 0.0 3.0 176 178
d 1.17 0 12 cbr 210 ------- 0 0.0 3.0 176 178
h 1.17125 0 12 cbr 210 ------- 0 0.0 3.0 179 181
+ 1.17375 0 12 cbr 210 ------- 0 0.0 3.0 177 179
d 1.17375 0 12 cbr 210 ------- 0 0.0 3.0 177 179
r 1.17382 12 3 cbr 210 ------- 0 0.0 3.0 32 34
h 1.175 0 12 cbr 210 ------- 0 0.0 3.0 180 182
+ 1.1775 0 12 cbr 210 ------- 0 0.0 3.0 178 180
d 1.1775 0 12 cbr 210 ------- 0 0.0 3.0 178 180
h 1.17875 0 12 cbr 210 ------- 0 0.0 3.0 181 183
+ 1.18125 0 12 cbr 210 ------- 0 0.0 3.0 179 181
d 1.18125 0 12 cbr 210 ------- 0 0.0 3.0 179 181
h 1.1825 0 12 cbr 210 ------- 0 0.0 3.0 182 184
- 1.183656 0 12 cbr 210 ------- 0 0.0 3.0 34 36
+ 1.185 0 12 cbr 210 ------- 0 0.0 3.0 180 182
h 1.18625 0 12 cbr 210 ------- 0 0.0 3.0 183 185
+ 1.18875 0 12 cbr 210 ------- 0 0.0 3.0 181 183
d 1.18875 0 12 cbr 210 ------- 0 0.0 3.0 181 183
h 1.19 0 12 cbr 210 ------- 0 0.0 3.0 184 186
+ 1.1925 0 12 cbr 210 ------- 0 0.0 3.0 182 184
d 1.1925 0 12 cbr 210 ------- 0 0.0 3.0 182 184
r 1.1927 12 3 cbr 210 ------- 0 0.0 3.0 33 35
h 1.19375 0 12 cbr 210 ------- 0 0.0 3.0 185 187
+ 1.19625 0 12 cbr 210 ------- 0 0.0 3.0 183 185
d 1.19625 0 12 cbr 210 ------- 0 0.0 3.0 183 185
h 1.1975 0 12 cbr 210 ------- 0 0.0 3.0 186 188
+ 1.2 0 12 cbr 210 ------- 0 0.0 3.0 184 186
d 1.2 0 12 cbr 210 ------- 0 0.0 3.0 184 186
h 1.20125 0 12 cbr 210 ------- 0 0.0 3.0 187 189
- 1.202536 0 12 cbr 210 ------- 0 0.0 3.0 35 37
+ 1.20375 0 12 cbr 210 ------- 0 0.0 3.0 185 187
h 1.205 0 12 cbr 210 ------- 0 0.0 3.0 188 190
+ 1.2075 0 12 cbr 210 ------- 0 0.0 3.0 186 188
d 1.2075 0 12 cbr 210 ------- 0 0.0 3.0 186 188
h 1.20875 0 12 cbr 210 ------- 0 0.0 3.0 189 191
+ 1.21125 0 12 cbr 210 ------- 0 0.0 3.0 187 189
d 1.21125 0 12 cbr 210 ------- 0 0.0 3.0 187 189
r 1.21158 12 3 cbr 210 ------- 0 0.0 3.0 34 36
h 1.2125 0 12 cbr 210 ------- 0 0.0 3.0 190 192
+ 1.215 0 12 cbr 210 ------- 0 0.0 3.0 188 190
d 1.215 0 12 cbr 210 ------- 0 0.0 3.0 188 190
h 1.21625 0 12 cbr 210 ------- 0 0.0 3.0 191 193
+ 1.21875 0 12 cbr 210 ------- 0 0.0 3.0 189 191
d 1.21875 0 12 cbr 210 ------- 0 0.0 3.0 189 191
h 1.22 0 12 cbr 210 ------- 0 0.0 3.0 192 194
- 1.221416 0 12 cbr 210 ------- 0 0.0 3.0 36 38
+ 1.2225 0 12 cbr 210 ------- 0 0.0 3.0 190 192
h 1.22375 0 12 cbr 210 ------- 0 0.0 3.0 193 195
+ 1.22625 0 12 cbr 210 ------- 0 0.0 3.0 191 193
d 1.22625 0 12 cbr 210 ------- 0 0.0 3.0 191 193
h 1.2275 0 12 cbr 210 ------- 0 0.0 3.0 194 196
+ 1.23 0 12 cbr 210 ------- 0 0.0 3.0 192 194
d 1.23 0 12 cbr 210 ------- 0 0.0 3.0 192 194
r 1.23046 12 3 cbr 210 ------- 0 0.0 3.0 35 37
h 1.23125 0 12 cbr 210 ------- 0 0.0 3.0 195 197
+ 1.23375 0 12 cbr 210 ------- 0 0.0 3.0 193 195
d 1.23375 0 12 cbr 210 ------- 0 0.0 3.0 193 195
h 1.235 0 12 cbr 210 ------- 0 0.0 3.0 196 198
+ 1.2375 0 12 cbr 210 ------- 0 0.0 3.0 194 196
d 1.2375 0 12 cbr 210 ------- 0 0.0 3.0 194 196
h 1.23875 0 12 cbr 210 ------- 0 0.0 3.0 197 199
- 1.240296 0 12 cbr 210 ------- 0 0.0 3.0 37 39
+ 1.24125 0 12 cbr 210 ------- 0 0.0 3.0 195 197
h 1.2425 0 12 cbr 210 ------- 0 0.0 3.0 198 200
+ 1.245 0 12 cbr 210 ------- 0 0.0 3.0 196 198
d 1.245 0 12 cbr 210 ------- 0 0.0 3.0 196 198
h 1.24625 0 12 cbr 210 ------- 0 0.0 3.0 199 201
+ 1.24875 0 12 cbr 210 ------- 0 0.0 3.0 197 199
d 1.24875 0 12 cbr 210 ------- 0 0.0 3.0 197 199
r 1.24934 12 3 cbr 210 ------- 0 0.0 3.0 36 38
h 1.25 0 12 cbr 210 ------- 0 0.0 3.0 200 202
+ 1.2525 0 12 cbr 210 ------- 0 0.0 3.0 198 200
d 1.2525 0 12 cbr 210 ------- 0 0.0 3.0 198 200
h 1.25375 0 12 cbr 210 ------- 0 0.0 3.0 201 203
+ 1.25625 0 12 cbr 210 ------- 0 0.0 3.0 199 201
d 1.25625 0 12 cbr 210 ------- 0 0.0 3.0 199 201
h 1.2575 0 12 cbr 210 ------- 0 0.0 3.0 202 204
- 1.259176 0 12 cbr 210 ------- 0 0.0 3.0 38 40
+ 1.26 0 12 cbr 210 ------- 0 0.0 3.0 200 202
h 1.26125 0 12 cbr 210 ------- 0 0.0 3.0 203 205
+ 1.26375 0 12 cbr 210 ------- 0 0.0 3.0 201 203
d 1.26375 0 12 cbr 210 ------- 0 0.0 3.0 201 203
h 1.265 0 12 cbr 210 ------- 0 0.0 3.0 204 206
+ 1.2675 0 12 cbr 210 ------- 0 0.0 3.0 202 204
d 1.2675 0 12 cbr 210 ------- 0 0.0 3.0 202 204
r 1.26822 12 3 cbr 210 ------- 0 0.0 3.0 37 39
h 1.26875 0 12 cbr 210 ------- 0 0.0 3.0 205 207
+ 1.27125 0 12 cbr 210 ------- 0 0.0 3.0 203 205
d 1.27125 0 12 cbr 210 ------- 0 0.0 3.0 203 205
h 1.2725 0 12 cbr 210 ------- 0 0.0 3.0 206 208
+ 1.275 0 12 cbr 210 ------- 0 0.0 3.0 204 206
d 1.275 0 12 cbr 210 ------- 0 0.0 3.0 204 206
h 1.27625 0 12 cbr 210 ------- 0 0.0 3.0 207 209
- 1.278056 0 12 cbr 210 ------- 0 0.0 3.0 39 41
+ 1.27875 0 12 cbr 210 ------- 0 0.0 3.0 205 207
h 1.28 0 12 cbr 210 ------- 0 0.0 3.0 208 210
+ 1.2825 0 12 cbr 210 ------- 0 0.0 3.0 206 208
d 1.2825 0 12 cbr 210 ------- 0 0.0 3.0 206 208
h 1.28375 0 12 cbr 210 ------- 0 0.0 3.0 209 211
+ 1.28625 0 12 cbr 210 ------- 0 0.0 3.0 207 209
d 1.28625 0 12 cbr 210 ------- 0 0.0 3.0 207 209
r 1.2871 12 3 cbr 210 ------- 0 0.0 3.0 38 40
h 1.2875 0 12 cbr 210 ------- 0 0.0 3.0 210 212
+ 1.29 0 12 cbr 210 ------- 0 0.0 3.0 208 210
d 1.29 0 12 cbr 210 ------- 0 0.0 3.0 208 210
h 1.29125 0 12 cbr 210 ------- 0 0.0 3.0 211 213
+ 1.29375 0 12 cbr 210 ------- 0 0.0 3.0 209 211
d 1.29375 0 12 cbr 210 ------- 0 0.0 3.0 209 211
h 1.295 0 12 cbr 210 ------- 0 0.0 3.0 212 214
- 1.296936 0 12 cbr 210 ------- 0 0.0 3.0 40 42
+ 1.2975 0 12 cbr 210 ------- 0 0.0 3.0 210 212
h 1.29875 0 12 cbr 210 ------- 0 0.0 3.0 213 215
+ 1.30125 0 12 cbr 210 ------- 0 0.0 3.0 211 213
d 1.30125 0 12 cbr 210 ------- 0 0.0 3.0 211 213
h 1.3025 0 12 cbr 210 ------- 0 0.0 3.0 214 216