+ 0.2 0 5 ping 64 ------- 0 0.0 2.0 -1 0
- 0.2 0 5 ping 64 ------- 0 0.0 2.0 -1 0
r 0.205512 0 5 ping 64 ------- 0 0.0 2.0 -1 0
+ 0.205512 5 2 ping 64 ------- 0 0.0 2.0 -1 0
- 0.205512 5 2 ping 64 ------- 0 0.0 2.0 -1 0
r 0.211024 5 2 ping 64 ------- 0 0.0 2.0 -1 0
+ 0.211024 2 5 ping 64 ------- 0 2.0 0.0 -1 1
- 0.211024 2 5 ping 64 ------- 0 2.0 0.0 -1 1
r 0.216536 2 5 ping 64 ------- 0 2.0 0.0 -1 1
+ 0.216536 5 0 ping 64 ------- 0 2.0 0.0 -1 1
- 0.216536 5 0 ping 64 ------- 0 2.0 0.0 -1 1
r 0.222048 5 0 ping 64 ------- 0 2.0 0.0 -1 1
+ 0.4 0 5 ping 64 ------- 0 0.0 2.0 -1 2
- 0.4 0 5 ping 64 ------- 0 0.0 2.0 -1 2
r 0.405512 0 5 ping 64 ------- 0 0.0 2.0 -1 2
+ 0.405512 5 2 ping 64 ------- 0 0.0 2.0 -1 2
- 0.405512 5 2 ping 64 ------- 0 0.0 2.0 -1 2
r 0.411024 5 2 ping 64 ------- 0 0.0 2.0 -1 2
+ 0.411024 2 5 ping 64 ------- 0 2.0 0.0 -1 3
- 0.411024 2 5 ping 64 ------- 0 2.0 0.0 -1 3
r 0.416536 2 5 ping 64 ------- 0 2.0 0.0 -1 3
+ 0.416536 5 0 ping 64 ------- 0 2.0 0.0 -1 3
- 0.416536 5 0 ping 64 ------- 0 2.0 0.0 -1 3
r 0.422048 5 0 ping 64 ------- 0 2.0 0.0 -1 3
+ 0.6 2 5 ping 64 ------- 0 2.0 0.0 -1 4
- 0.6 2 5 ping 64 ------- 0 2.0 0.0 -1 4
r 0.605512 2 5 ping 64 ------- 0 2.0 0.0 -1 4
+ 0.605512 5 0 ping 64 ------- 0 2.0 0.0 -1 4
- 0.605512 5 0 ping 64 ------- 0 2.0 0.0 -1 4
r 0.611024 5 0 ping 64 ------- 0 2.0 0.0 -1 4
+ 0.611024 0 5 ping 64 ------- 0 0.0 2.0 -1 5
- 0.611024 0 5 ping 64 ------- 0 0.0 2.0 -1 5
r 0.616536 0 5 ping 64 ------- 0 0.0 2.0 -1 5
+ 0.616536 5 2 ping 64 ------- 0 0.0 2.0 -1 5
- 0.616536 5 2 ping 64 ------- 0 0.0 2.0 -1 5
r 0.622048 5 2 ping 64 ------- 0 0.0 2.0 -1 5
+ 0.8 2 5 ping 64 ------- 0 2.0 0.0 -1 6
- 0.8 2 5 ping 64 ------- 0 2.0 0.0 -1 6
r 0.805512 2 5 ping 64 ------- 0 2.0 0.0 -1 6
+ 0.805512 5 0 ping 64 ------- 0 2.0 0.0 -1 6
- 0.805512 5 0 ping 64 ------- 0 2.0 0.0 -1 6
r 0.811024 5 0 ping 64 ------- 0 2.0 0.0 -1 6
+ 0.811024 0 5 ping 64 ------- 0 0.0 2.0 -1 7
- 0.811024 0 5 ping 64 ------- 0 0.0 2.0 -1 7
r 0.816536 0 5 ping 64 ------- 0 0.0 2.0 -1 7
+ 0.816536 5 2 ping 64 ------- 0 0.0 2.0 -1 7
- 0.816536 5 2 ping 64 ------- 0 0.0 2.0 -1 7
r 0.822048 5 2 ping 64 ------- 0 0.0 2.0 -1 7
